<?xml version="1.0" encoding="UTF-8"?>

<!-- generated on vie 16 oct 2020 11:54:38 -05 by Eclipse SUMO GUI Version 1.7.0
<configuration xmlns:xsi="http://www.w3.org/2001/XMLSchema-instance" xsi:noNamespaceSchemaLocation="http://sumo.dlr.de/xsd/sumoConfiguration.xsd">

    <input>
        <net-file value="/usr/share/doc/sumo-doc/tutorial/traci_tls/data/cross.net.xml"/>
        <route-files value="/usr/share/doc/sumo-doc/tutorial/traci_tls/data/cross.rou.xml"/>
        <additional-files value="/usr/share/doc/sumo-doc/tutorial/traci_tls/data/cross.det.xml"/>
    </input>

    <time>
        <begin value="0"/>
    </time>

    <report>
        <verbose value="true"/>
        <no-step-log value="true"/>
    </report>

</configuration>
-->

<detector xmlns:xsi="http://www.w3.org/2001/XMLSchema-instance" xsi:noNamespaceSchemaLocation="http://sumo.dlr.de/xsd/det_e1_file.xsd">
</detector>
